# this is a data file for CNF 2 cones simulation	

180 atoms	
1 atom types	

 -6.7705     6.7705 xlo xhi 
 -6.9414     6.9414 ylo yhi	
 -12.43375   12.43375 zlo zhi	

 Masses	
 
     1   12.0000	
 Atoms	
 
1	1	-0.7094	6.9414	-9.1979
2	1	-0.7086	5.2907	-4.5604
3	1	-1.4082	5.5877	-5.7609
4	1	-0.7091	6.1167	-6.8789
5	1	-2.7647	6.0275	-8.2186
6	1	-1.4112	6.4273	-8.0746
7	1	-0.7066	3.6313	0.074
8	1	-1.3961	3.8862	-1.1419
9	1	-0.7079	4.4627	-2.2426
10	1	-2.7067	4.2193	-3.6408
11	1	-1.4036	4.7418	-3.4496
12	1	-3.3299	4.3303	-4.9129
13	1	-2.7416	5.1344	-5.9253
14	1	-4.5247	4.4874	-7.4867
15	1	-3.3833	5.2741	-7.1854
16	1	-5.101	4.5438	-8.7843
17	1	-0.698	1.9431	4.6978
18	1	-1.3533	2.1096	3.4484
19	1	-0.7041	2.7938	2.3883
20	1	-2.5505	2.2719	0.8767
21	1	-1.3823	3.0138	1.1595
22	1	-3.1106	2.3143	-0.4286
23	1	-2.6501	3.2713	-1.3702
24	1	-4.1848	2.3657	-3.0592
25	1	-3.2473	3.3493	-2.6572
26	1	-4.7061	2.3818	-4.381
27	1	-4.3891	3.4528	-5.2576
28	1	-5.7281	2.404	-7.0328
29	1	-4.9401	3.488	-6.567
30	1	-6.2315	2.4118	-8.3616
31	1	-6.0136	3.5387	-9.1979
32	1	-0.4737	0	9.1979
33	1	-0.9473	0	7.8581
34	1	-0.6767	1.0548	6.993
35	1	-1.8947	0	5.1787
36	1	-1.2753	1.136	5.7071
37	1	-2.3683	0	3.8389
38	1	-2.3531	1.1909	3.0783
39	1	-3.3157	0	1.1595
40	1	-2.864	1.202	1.7524
41	1	-3.7893	0	-0.1803
42	1	-3.8607	1.2138	-0.9091
43	1	-4.7367	0	-2.8597
44	1	-4.3515	1.2171	-2.2426
45	1	-5.2103	0	-4.1995
46	1	-5.3243	1.2214	-4.9129
47	1	-6.1577	0	-6.8789
48	1	-5.8077	1.2228	-6.2492
49	1	-6.6313	0	-8.2186
50	1	-6.7705	1.2248	-8.9231
51	1	0.9473	0	7.8581
52	1	0.4737	0	9.1979
53	1	0.6767	-1.0548	6.993
54	1	-0.6767	-1.0548	6.993
55	1	-0.698	-1.9431	4.6978
56	1	-1.2753	-1.136	5.7071
57	1	-1.3533	-2.1096	3.4484
58	1	-2.3531	-1.1909	3.0783
59	1	-2.5505	-2.2719	0.8767
60	1	-2.864	-1.202	1.7524
61	1	-3.1106	-2.3143	-0.4286
62	1	-3.8607	-1.2138	-0.9091
63	1	-4.1848	-2.3657	-3.0592
64	1	-4.3515	-1.2171	-2.2426
65	1	-4.7061	-2.3818	-4.381
66	1	-5.3243	-1.2214	-4.9129
67	1	-5.7281	-2.404	-7.0328
68	1	-5.8077	-1.2228	-6.2492
69	1	-6.2315	-2.4118	-8.3616
70	1	-6.7705	-1.2248	-8.9231
71	1	1.2753	1.136	5.7071
72	1	0.6767	1.0548	6.993
73	1	1.8947	0	5.1787
74	1	1.2753	-1.136	5.7071
75	1	1.3533	-2.1096	3.4484
76	1	0.698	-1.9431	4.6978
77	1	0.7041	-2.7938	2.3883
78	1	-0.7041	-2.7938	2.3883
79	1	-0.7066	-3.6313	0.074
80	1	-1.3823	-3.0138	1.1595
81	1	-1.3961	-3.8862	-1.1419
82	1	-2.6501	-3.2713	-1.3702
83	1	-2.7067	-4.2193	-3.6408
84	1	-3.2473	-3.3493	-2.6572
85	1	-3.3299	-4.3303	-4.9129
86	1	-4.3891	-3.4528	-5.2576
87	1	-4.5247	-4.4874	-7.4867
88	1	-4.9401	-3.488	-6.567
89	1	-5.101	-4.5438	-8.7843
90	1	-6.0136	-3.5387	-9.1979
91	1	1.3533	2.1096	3.4484
92	1	0.698	1.9431	4.6978
93	1	2.3531	1.1909	3.0783
94	1	2.3683	0	3.8389
95	1	2.864	-1.202	1.7524
96	1	2.3531	-1.1909	3.0783
97	1	2.5505	-2.2719	0.8767
98	1	1.3823	-3.0138	1.1595
99	1	1.3961	-3.8862	-1.1419
100	1	0.7066	-3.6313	0.074
101	1	0.7079	-4.4627	-2.2426
102	1	-0.7079	-4.4627	-2.2426
103	1	-0.7086	-5.2907	-4.5604
104	1	-1.4036	-4.7418	-3.4496
105	1	-1.4082	-5.5877	-5.7609
106	1	-2.7416	-5.1344	-5.9253
107	1	-2.7647	-6.0275	-8.2186
108	1	-3.3833	-5.2741	-7.1854
109	1	1.3823	3.0138	1.1595
110	1	0.7041	2.7938	2.3883
111	1	2.5505	2.2719	0.8767
112	1	2.864	1.202	1.7524
113	1	3.7893	0	-0.1803
114	1	3.3157	0	1.1595
115	1	3.8607	-1.2138	-0.9091
116	1	3.1106	-2.3143	-0.4286
117	1	3.2473	-3.3493	-2.6572
118	1	2.6501	-3.2713	-1.3702
119	1	2.7067	-4.2193	-3.6408
120	1	1.4036	-4.7418	-3.4496
121	1	1.4082	-5.5877	-5.7609
122	1	0.7086	-5.2907	-4.5604
123	1	0.7091	-6.1167	-6.8789
124	1	-0.7091	-6.1167	-6.8789
125	1	-0.7094	-6.9414	-9.1979
126	1	-1.4112	-6.4273	-8.0746
127	1	1.3961	3.8862	-1.1419
128	1	0.7066	3.6313	0.074
129	1	2.6501	3.2713	-1.3702
130	1	3.1106	2.3143	-0.4286
131	1	4.3515	1.2171	-2.2426
132	1	3.8607	1.2138	-0.9091
133	1	4.7367	0	-2.8597
134	1	4.3515	-1.2171	-2.2426
135	1	4.7061	-2.3818	-4.381
136	1	4.1848	-2.3657	-3.0592
137	1	4.3891	-3.4528	-5.2576
138	1	3.3299	-4.3303	-4.9129
139	1	3.3833	-5.2741	-7.1854
140	1	2.7416	-5.1344	-5.9253
141	1	2.7647	-6.0275	-8.2186
142	1	1.4112	-6.4273	-8.0746
143	1	0.7094	-6.9414	-9.1979
144	1	1.4036	4.7418	-3.4496
145	1	0.7079	4.4627	-2.2426
146	1	2.7067	4.2193	-3.6408
147	1	3.2473	3.3493	-2.6572
148	1	4.7061	2.3819	-4.381
149	1	4.1848	2.3657	-3.0592
150	1	5.3243	1.2214	-4.9129
151	1	5.2103	0	-4.1995
152	1	5.8077	-1.2228	-6.2492
153	1	5.3243	-1.2214	-4.9129
154	1	5.7281	-2.404	-7.0328
155	1	4.9401	-3.488	-6.567
156	1	5.101	-4.5438	-8.7843
157	1	4.5247	-4.4874	-7.4867
158	1	1.4082	5.5877	-5.7609
159	1	0.7086	5.2907	-4.5604
160	1	2.7416	5.1344	-5.9253
161	1	3.3299	4.3303	-4.9129
162	1	4.9401	3.488	-6.567
163	1	4.3891	3.4528	-5.2576
164	1	5.7281	2.404	-7.0328
165	1	5.8077	1.2228	-6.2492
166	1	6.6313	0	-8.2186
167	1	6.1577	0	-6.8789
168	1	6.7705	-1.2248	-8.9231
169	1	6.2315	-2.4118	-8.3616
170	1	6.0136	-3.5387	-9.1979
171	1	1.4112	6.4273	-8.0746
172	1	0.7091	6.1167	-6.8789
173	1	2.7647	6.0275	-8.2186
174	1	3.3833	5.2741	-7.1854
175	1	5.101	4.5438	-8.7843
176	1	4.5247	4.4874	-7.4867
177	1	6.0136	3.5387	-9.1979
178	1	6.2315	2.4118	-8.3616
179	1	6.7705	1.2248	-8.9231
180	1	0.7094	6.9414	-9.1979
